                               Psi4 1.3.2 release

  ==> Input File <==

--------------------------------------------------------------------------
import sys
sys.path.append('.')
from auto import RCCSD as auto
from Stanton import RCCSD as Stt

molecule mol {
    0 1
    O
    H 1 0.96
    H 1 0.96 2 104.5
    symmetry c1
}

set {
    BASIS         cc-pvtz
    REFERENCE     RHF
    SCF_TYPE      PK
    E_CONVERGENCE 12
}

e, wfn = energy('scf', return_wfn=True)
p4 = energy('ccsd')

#auto(wfn, CC_CONV = 8, E_CONV = 12)
Stt(wfn, CC_CONV = 8, E_CONV = 12)
print(p4)

--------------------------------------------------------------------------

    Molecular point group: c1
  Charge       = 0
  Multiplicity = 1
  Basis Set: CC-PVTZ
    Blend: CC-PVTZ
  @RHF Final Energy:   -76.05696457473374
    Total Energy =                        -76.0569645747337404
    Molecular point group: c1

    Geometry (in Angstrom), charge = 0, multiplicity = 1:

       Center              X                  Y                   Z               Mass
    ------------   -----------------  -----------------  -----------------  -----------------
         O            0.000000000000     0.000000000000    -0.065775570547    15.994914619570
         H            0.000000000000    -0.759061990794     0.521953018286     1.007825032230
         H            0.000000000000     0.759061990794     0.521953018286     1.007825032230

  Charge       = 0
  Multiplicity = 1
  Basis Set: CC-PVTZ
    Blend: CC-PVTZ

    Orbital Energies [Eh]
    ---------------------

    Doubly Occupied:

       1A    -20.555232     2A     -1.344244     3A     -0.708249
       4A     -0.577218     5A     -0.504254

  @RHF Final Energy:   -76.05696457473374

   => Energetics <=

    Nuclear Repulsion Energy =              9.1681932964243487
    One-Electron Energy =                -123.0719196999543357
    Two-Electron Energy =                  37.8467618287962466
    Total Energy =                        -76.0569645747337404

  Dipole Moment: [D]
     X:    -0.0000      Y:    -0.0000      Z:     2.0275     Total:     2.0275

      * MP2 total energy                      =  -76.332227749304266
      * CCSD total energy                     =  -76.337961464222815
*** Psi4 exiting successfully. Buy a developer a beer!
